Date_file to box block

40 atoms
2 atom types

0 6.075617 xlo xhi
0 6.075617 ylo yhi
0 6.075617 zlo zhi

Masses

1 1.008000
2 0.005000

Atoms

   1    1 1.000000    0 0.000000 1.1583 4.3285 2.4820
   2    1 1.000000    0 0.000000 1.8795 4.7849 3.5936
   3    2 0.000000    1 1.823572 1.5189 4.5567 3.0378
   4    2 0.000000   -1 1.823572 1.5189 4.5567 3.0378
   5    1 1.000000    0 0.000000 1.4398 4.1880 0.9283
   6    1 1.000000    0 0.000000 1.5980 4.9254 2.1095
   7    2 0.000000    1 1.823572 1.5189 4.5567 1.5189
   8    2 0.000000   -1 1.823572 1.5189 4.5567 1.5189
   9    1 1.000000    0 0.000000 4.5544 0.8318 2.9007
  10    1 1.000000    0 0.000000 4.5590 2.2061 3.1750
  11    2 0.000000    1 1.823572 4.5567 1.5189 3.0378
  12    2 0.000000   -1 1.823572 4.5567 1.5189 3.0378
  13    1 1.000000    0 0.000000 1.3155 4.1439 4.0283
  14    1 1.000000    0 0.000000 1.7223 4.9695 5.0851
  15    2 0.000000    1 1.823572 1.5189 4.5567 4.5567
  16    2 0.000000   -1 1.823572 1.5189 4.5567 4.5567
  17    1 1.000000    0 0.000000 1.1351 2.5031 1.2785
  18    1 1.000000    0 0.000000 1.9027 3.5725 1.7593
  19    2 0.000000    1 1.823572 1.5189 3.0378 1.5189
  20    2 0.000000   -1 1.823572 1.5189 3.0378 1.5189
  21    1 1.000000    0 0.000000 2.6992 4.5310 2.4249
  22    1 1.000000    0 0.000000 3.3764 4.5825 3.6507
  23    2 0.000000    1 1.823572 3.0378 4.5567 3.0378
  24    2 0.000000   -1 1.823572 3.0378 4.5567 3.0378
  25    1 1.000000    0 0.000000 1.2114 1.4380 0.8945
  26    1 1.000000    0 0.000000 1.8264 1.5998 2.1433
  27    2 0.000000    1 1.823572 1.5189 1.5189 1.5189
  28    2 0.000000   -1 1.823572 1.5189 1.5189 1.5189
  29    1 1.000000    0 0.000000 4.0180 1.0792 1.4325
  30    1 1.000000    0 0.000000 5.0954 1.9586 1.6053
  31    2 0.000000    1 1.823572 4.5567 1.5189 1.5189
  32    2 0.000000   -1 1.823572 4.5567 1.5189 1.5189
  33    1 1.000000    0 0.000000 2.6489 4.0370 4.2927
  34    1 1.000000    0 0.000000 3.4267 5.0764 4.8207
  35    2 0.000000    1 1.823572 3.0378 4.5567 4.5567
  36    2 0.000000   -1 1.823572 3.0378 4.5567 4.5567
  37    1 1.000000    0 0.000000 3.8989 2.9976 4.3187
  38    1 1.000000    0 0.000000 5.2145 3.0780 4.7948
  39    2 0.000000    1 1.823572 4.5567 3.0378 4.5567
  40    2 0.000000   -1 1.823572 4.5567 3.0378 4.5567
