Date_file to box block

864 atoms
2 atom types

0 20.061244 xlo xhi
0 20.061244 ylo yhi
0 20.061244 zlo zhi

Masses

1 1.008000
2 0.005000

Atoms

   1    1 1.000000    0 0.000000 5.6617 9.9535 13.4447
   2    1 1.000000    0 0.000000 6.3750 10.1077 14.6411
   3    2 0.000000    1 1.823572 6.0184 10.0306 14.0429
   4    2 0.000000   -1 1.823572 6.0184 10.0306 14.0429
   5    1 1.000000    0 0.000000 17.9533 11.9313 13.3577
   6    1 1.000000    0 0.000000 18.1569 12.1422 14.7281
   7    2 0.000000    1 1.823572 18.0551 12.0367 14.0429
   8    2 0.000000   -1 1.823572 18.0551 12.0367 14.0429
   9    1 1.000000    0 0.000000 3.6348 9.6887 7.5432
  10    1 1.000000    0 0.000000 4.3897 10.3725 8.5058
  11    2 0.000000    1 1.823572 4.0122 10.0306 8.0245
  12    2 0.000000   -1 1.823572 4.0122 10.0306 8.0245
  13    1 1.000000    0 0.000000 13.6430 1.4783 15.8199
  14    1 1.000000    0 0.000000 14.4428 2.5340 16.2781
  15    2 0.000000    1 1.823572 14.0429 2.0061 16.0490
  16    2 0.000000   -1 1.823572 14.0429 2.0061 16.0490
  17    1 1.000000    0 0.000000 9.7792 5.7341 11.4477
  18    1 1.000000    0 0.000000 10.2821 6.3027 12.6258
  19    2 0.000000    1 1.823572 10.0306 6.0184 12.0367
  20    2 0.000000   -1 1.823572 10.0306 6.0184 12.0367
  21    1 1.000000    0 0.000000 5.8154 9.6605 15.4897
  22    1 1.000000    0 0.000000 6.2214 10.4007 16.6083
  23    2 0.000000    1 1.823572 6.0184 10.0306 16.0490
  24    2 0.000000   -1 1.823572 6.0184 10.0306 16.0490
  25    1 1.000000    0 0.000000 16.0215 13.4363 13.6932
  26    1 1.000000    0 0.000000 16.0765 14.6495 14.3926
  27    2 0.000000    1 1.823572 16.0490 14.0429 14.0429
  28    2 0.000000   -1 1.823572 16.0490 14.0429 14.0429
  29    1 1.000000    0 0.000000 3.9941 7.4264 9.6660
  30    1 1.000000    0 0.000000 4.0304 8.6226 10.3953
  31    2 0.000000    1 1.823572 4.0122 8.0245 10.0306
  32    2 0.000000   -1 1.823572 4.0122 8.0245 10.0306
  33    1 1.000000    0 0.000000 11.8905 9.5841 11.5169
  34    1 1.000000    0 0.000000 12.1830 10.4771 12.5566
  35    2 0.000000    1 1.823572 12.0367 10.0306 12.0367
  36    2 0.000000   -1 1.823572 12.0367 10.0306 12.0367
  37    1 1.000000    0 0.000000 17.6682 7.6271 15.6208
  38    1 1.000000    0 0.000000 18.4420 8.4219 16.4772
  39    2 0.000000    1 1.823572 18.0551 8.0245 16.0490
  40    2 0.000000   -1 1.823572 18.0551 8.0245 16.0490
  41    1 1.000000    0 0.000000 15.5612 9.5746 15.8368
  42    1 1.000000    0 0.000000 16.5368 10.4867 16.2612
  43    2 0.000000    1 1.823572 16.0490 10.0306 16.0490
  44    2 0.000000   -1 1.823572 16.0490 10.0306 16.0490
  45    1 1.000000    0 0.000000 7.5670 7.6578 7.6408
  46    1 1.000000    0 0.000000 8.4820 8.3912 8.4082
  47    2 0.000000    1 1.823572 8.0245 8.0245 8.0245
  48    2 0.000000   -1 1.823572 8.0245 8.0245 8.0245
  49    1 1.000000    0 0.000000 11.6713 5.6099 13.6063
  50    1 1.000000    0 0.000000 12.4022 6.4268 14.4794
  51    2 0.000000    1 1.823572 12.0367 6.0184 14.0429
  52    2 0.000000   -1 1.823572 12.0367 6.0184 14.0429
  53    1 1.000000    0 0.000000 7.7112 15.6234 7.5644
  54    1 1.000000    0 0.000000 8.3378 16.4746 8.4846
  55    2 0.000000    1 1.823572 8.0245 16.0490 8.0245
  56    2 0.000000   -1 1.823572 8.0245 16.0490 8.0245
  57    1 1.000000    0 0.000000 11.6176 5.5801 15.6979
  58    1 1.000000    0 0.000000 12.4559 6.4566 16.4001
  59    2 0.000000    1 1.823572 12.0367 6.0184 16.0490
  60    2 0.000000   -1 1.823572 12.0367 6.0184 16.0490
  61    1 1.000000    0 0.000000 17.9022 17.9254 17.3837
  62    1 1.000000    0 0.000000 18.2080 18.1848 18.7265
  63    2 0.000000    1 1.823572 18.0551 18.0551 18.0551
  64    2 0.000000   -1 1.823572 18.0551 18.0551 18.0551
  65    1 1.000000    0 0.000000 3.5460 17.8100 5.5563
  66    1 1.000000    0 0.000000 4.4785 18.3002 6.4805
  67    2 0.000000    1 1.823572 4.0122 18.0551 6.0184
  68    2 0.000000   -1 1.823572 4.0122 18.0551 6.0184
  69    1 1.000000    0 0.000000 9.6579 1.5749 13.6353
  70    1 1.000000    0 0.000000 10.4034 2.4374 14.4504
  71    2 0.000000    1 1.823572 10.0306 2.0061 14.0429
  72    2 0.000000   -1 1.823572 10.0306 2.0061 14.0429
  73    1 1.000000    0 0.000000 9.3666 15.8256 6.0061
  74    1 1.000000    0 0.000000 10.6946 16.2724 6.0306
  75    2 0.000000    1 1.823572 10.0306 16.0490 6.0184
  76    2 0.000000   -1 1.823572 10.0306 16.0490 6.0184
  77    1 1.000000    0 0.000000 11.8491 9.6349 5.4714
  78    1 1.000000    0 0.000000 12.2244 10.4263 6.5654
  79    2 0.000000    1 1.823572 12.0367 10.0306 6.0184
  80    2 0.000000   -1 1.823572 12.0367 10.0306 6.0184
  81    1 1.000000    0 0.000000 9.5299 11.8647 3.5533
  82    1 1.000000    0 0.000000 10.5314 12.2088 4.4712
  83    2 0.000000    1 1.823572 10.0306 12.0367 4.0122
  84    2 0.000000   -1 1.823572 10.0306 12.0367 4.0122
  85    1 1.000000    0 0.000000 11.4843 15.8360 7.6497
  86    1 1.000000    0 0.000000 12.5892 16.2620 8.3992
  87    2 0.000000    1 1.823572 12.0367 16.0490 8.0245
  88    2 0.000000   -1 1.823572 12.0367 16.0490 8.0245
  89    1 1.000000    0 0.000000 11.7689 11.4894 7.6785
  90    1 1.000000    0 0.000000 12.3046 12.5840 8.3705
  91    2 0.000000    1 1.823572 12.0367 12.0367 8.0245
  92    2 0.000000   -1 1.823572 12.0367 12.0367 8.0245
  93    1 1.000000    0 0.000000 9.7277 17.5764 3.5999
  94    1 1.000000    0 0.000000 10.3336 18.5339 4.4246
  95    2 0.000000    1 1.823572 10.0306 18.0551 4.0122
  96    2 0.000000   -1 1.823572 10.0306 18.0551 4.0122
  97    1 1.000000    0 0.000000 9.9148 9.3885 1.7508
  98    1 1.000000    0 0.000000 10.1465 10.6728 2.2615
  99    2 0.000000    1 1.823572 10.0306 10.0306 2.0061
 100    2 0.000000   -1 1.823572 10.0306 10.0306 2.0061
 101    1 1.000000    0 0.000000 3.4752 15.6615 13.8137
 102    1 1.000000    0 0.000000 4.5493 16.4364 14.2720
 103    2 0.000000    1 1.823572 4.0122 16.0490 14.0429
 104    2 0.000000   -1 1.823572 4.0122 16.0490 14.0429
 105    1 1.000000    0 0.000000 3.5561 11.7224 15.6199
 106    1 1.000000    0 0.000000 4.4684 12.3511 16.4781
 107    2 0.000000    1 1.823572 4.0122 12.0367 16.0490
 108    2 0.000000   -1 1.823572 4.0122 12.0367 16.0490
 109    1 1.000000    0 0.000000 13.4240 9.7021 16.0375
 110    1 1.000000    0 0.000000 14.6617 10.3591 16.0605
 111    2 0.000000    1 1.823572 14.0429 10.0306 16.0490
 112    2 0.000000   -1 1.823572 14.0429 10.0306 16.0490
 113    1 1.000000    0 0.000000 17.6799 15.4740 13.9030
 114    1 1.000000    0 0.000000 18.4304 16.6240 14.1828
 115    2 0.000000    1 1.823572 18.0551 16.0490 14.0429
 116    2 0.000000   -1 1.823572 18.0551 16.0490 14.0429
 117    1 1.000000    0 0.000000 15.9287 9.3930 17.7905
 118    1 1.000000    0 0.000000 16.1693 10.6682 18.3197
 119    2 0.000000    1 1.823572 16.0490 10.0306 18.0551
 120    2 0.000000   -1 1.823572 16.0490 10.0306 18.0551
 121    1 1.000000    0 0.000000 13.3925 13.9247 11.8042
 122    1 1.000000    0 0.000000 14.6932 14.1610 12.2693
 123    2 0.000000    1 1.823572 14.0429 14.0429 12.0367
 124    2 0.000000   -1 1.823572 14.0429 14.0429 12.0367
 125    1 1.000000    0 0.000000 11.9558 5.3238 5.9738
 126    1 1.000000    0 0.000000 12.1177 6.7130 6.0630
 127    2 0.000000    1 1.823572 12.0367 6.0184 6.0184
 128    2 0.000000   -1 1.823572 12.0367 6.0184 6.0184
 129    1 1.000000    0 0.000000 15.5007 7.6037 15.9338
 130    1 1.000000    0 0.000000 16.5973 8.4453 16.1642
 131    2 0.000000    1 1.823572 16.0490 8.0245 16.0490
 132    2 0.000000   -1 1.823572 16.0490 8.0245 16.0490
 133    1 1.000000    0 0.000000 1.7489 7.4575 3.6908
 134    1 1.000000    0 0.000000 2.2633 8.5915 4.3337
 135    2 0.000000    1 1.823572 2.0061 8.0245 4.0122
 136    2 0.000000   -1 1.823572 2.0061 8.0245 4.0122
 137    1 1.000000    0 0.000000 17.9062 11.5152 9.5870
 138    1 1.000000    0 0.000000 18.2040 12.5583 10.4742
 139    2 0.000000    1 1.823572 18.0551 12.0367 10.0306
 140    2 0.000000   -1 1.823572 18.0551 12.0367 10.0306
 141    1 1.000000    0 0.000000 5.5939 13.5592 9.7533
 142    1 1.000000    0 0.000000 6.4429 14.5265 10.3079
 143    2 0.000000    1 1.823572 6.0184 14.0429 10.0306
 144    2 0.000000   -1 1.823572 6.0184 14.0429 10.0306
 145    1 1.000000    0 0.000000 17.5348 17.9068 5.5731
 146    1 1.000000    0 0.000000 18.5754 18.2034 6.4637
 147    2 0.000000    1 1.823572 18.0551 18.0551 6.0184
 148    2 0.000000   -1 1.823572 18.0551 18.0551 6.0184
 149    1 1.000000    0 0.000000 15.4299 13.9412 9.7186
 150    1 1.000000    0 0.000000 16.6681 14.1445 10.3426
 151    2 0.000000    1 1.823572 16.0490 14.0429 10.0306
 152    2 0.000000   -1 1.823572 16.0490 14.0429 10.0306
 153    1 1.000000    0 0.000000 7.5065 3.7852 15.6354
 154    1 1.000000    0 0.000000 8.5425 4.2393 16.4626
 155    2 0.000000    1 1.823572 8.0245 4.0122 16.0490
 156    2 0.000000   -1 1.823572 8.0245 4.0122 16.0490
 157    1 1.000000    0 0.000000 3.5100 11.5561 7.9371
 158    1 1.000000    0 0.000000 4.5145 12.5174 8.1119
 159    2 0.000000    1 1.823572 4.0122 12.0367 8.0245
 160    2 0.000000   -1 1.823572 4.0122 12.0367 8.0245
 161    1 1.000000    0 0.000000 5.8903 15.5624 5.5307
 162    1 1.000000    0 0.000000 6.1464 16.5356 6.5060
 163    2 0.000000    1 1.823572 6.0184 16.0490 6.0184
 164    2 0.000000   -1 1.823572 6.0184 16.0490 6.0184
 165    1 1.000000    0 0.000000 3.6720 5.4108 3.9348
 166    1 1.000000    0 0.000000 4.3525 6.6260 4.0897
 167    2 0.000000    1 1.823572 4.0122 6.0184 4.0122
 168    2 0.000000   -1 1.823572 4.0122 6.0184 4.0122
 169    1 1.000000    0 0.000000 5.3424 13.8589 1.9914
 170    1 1.000000    0 0.000000 6.6943 14.2268 2.0209
 171    2 0.000000    1 1.823572 6.0184 14.0429 2.0061
 172    2 0.000000   -1 1.823572 6.0184 14.0429 2.0061
 173    1 1.000000    0 0.000000 1.7097 13.4189 7.9071
 174    1 1.000000    0 0.000000 2.3025 14.6669 8.1419
 175    2 0.000000    1 1.823572 2.0061 14.0429 8.0245
 176    2 0.000000   -1 1.823572 2.0061 14.0429 8.0245
 177    1 1.000000    0 0.000000 11.7549 17.4153 11.9894
 178    1 1.000000    0 0.000000 12.3186 18.6949 12.0841
 179    2 0.000000    1 1.823572 12.0367 18.0551 12.0367
 180    2 0.000000   -1 1.823572 12.0367 18.0551 12.0367
 181    1 1.000000    0 0.000000 9.4612 5.8522 1.6332
 182    1 1.000000    0 0.000000 10.6001 6.1845 2.3791
 183    2 0.000000    1 1.823572 10.0306 6.0184 2.0061
 184    2 0.000000   -1 1.823572 10.0306 6.0184 2.0061
 185    1 1.000000    0 0.000000 3.5307 17.5876 9.8294
 186    1 1.000000    0 0.000000 4.4938 18.5227 10.2319
 187    2 0.000000    1 1.823572 4.0122 18.0551 10.0306
 188    2 0.000000   -1 1.823572 4.0122 18.0551 10.0306
 189    1 1.000000    0 0.000000 13.6075 13.8365 9.5219
 190    1 1.000000    0 0.000000 14.4782 14.2493 10.5394
 191    2 0.000000    1 1.823572 14.0429 14.0429 10.0306
 192    2 0.000000   -1 1.823572 14.0429 14.0429 10.0306
 193    1 1.000000    0 0.000000 9.9640 5.9752 15.3528
 194    1 1.000000    0 0.000000 10.0972 6.0615 16.7452
 195    2 0.000000    1 1.823572 10.0306 6.0184 16.0490
 196    2 0.000000   -1 1.823572 10.0306 6.0184 16.0490
 197    1 1.000000    0 0.000000 5.3849 5.7871 13.8525
 198    1 1.000000    0 0.000000 6.6518 6.2496 14.2333
 199    2 0.000000    1 1.823572 6.0184 6.0184 14.0429
 200    2 0.000000   -1 1.823572 6.0184 6.0184 14.0429
 201    1 1.000000    0 0.000000 9.6141 13.7765 15.5525
 202    1 1.000000    0 0.000000 10.4472 14.3093 16.5455
 203    2 0.000000    1 1.823572 10.0306 14.0429 16.0490
 204    2 0.000000   -1 1.823572 10.0306 14.0429 16.0490
 205    1 1.000000    0 0.000000 5.6922 17.6427 9.5675
 206    1 1.000000    0 0.000000 6.3446 18.4675 10.4938
 207    2 0.000000    1 1.823572 6.0184 18.0551 10.0306
 208    2 0.000000   -1 1.823572 6.0184 18.0551 10.0306
 209    1 1.000000    0 0.000000 13.9322 9.3870 9.7766
 210    1 1.000000    0 0.000000 14.1535 10.6742 10.2846
 211    2 0.000000    1 1.823572 14.0429 10.0306 10.0306
 212    2 0.000000   -1 1.823572 14.0429 10.0306 10.0306
 213    1 1.000000    0 0.000000 15.4514 5.8480 5.6946
 214    1 1.000000    0 0.000000 16.6466 6.1888 6.3421
 215    2 0.000000    1 1.823572 16.0490 6.0184 6.0184
 216    2 0.000000   -1 1.823572 16.0490 6.0184 6.0184
 217    1 1.000000    0 0.000000 7.6223 15.7714 13.5407
 218    1 1.000000    0 0.000000 8.4267 16.3266 14.5451
 219    2 0.000000    1 1.823572 8.0245 16.0490 14.0429
 220    2 0.000000   -1 1.823572 8.0245 16.0490 14.0429
 221    1 1.000000    0 0.000000 7.5969 5.6672 15.6191
 222    1 1.000000    0 0.000000 8.4521 6.3695 16.4789
 223    2 0.000000    1 1.823572 8.0245 6.0184 16.0490
 224    2 0.000000   -1 1.823572 8.0245 6.0184 16.0490
 225    1 1.000000    0 0.000000 4.0021 11.5345 9.5421
 226    1 1.000000    0 0.000000 4.0224 12.5390 10.5192
 227    2 0.000000    1 1.823572 4.0122 12.0367 10.0306
 228    2 0.000000   -1 1.823572 4.0122 12.0367 10.0306
 229    1 1.000000    0 0.000000 15.4150 3.7588 7.8670
 230    1 1.000000    0 0.000000 16.6830 4.2657 8.1820
 231    2 0.000000    1 1.823572 16.0490 4.0122 8.0245
 232    2 0.000000   -1 1.823572 16.0490 4.0122 8.0245
 233    1 1.000000    0 0.000000 17.9522 5.5261 1.5182
 234    1 1.000000    0 0.000000 18.1580 6.5106 2.4941
 235    2 0.000000    1 1.823572 18.0551 6.0184 2.0061
 236    2 0.000000   -1 1.823572 18.0551 6.0184 2.0061
 237    1 1.000000    0 0.000000 5.7484 1.4131 13.7850
 238    1 1.000000    0 0.000000 6.2883 2.5991 14.3007
 239    2 0.000000    1 1.823572 6.0184 2.0061 14.0429
 240    2 0.000000   -1 1.823572 6.0184 2.0061 14.0429
 241    1 1.000000    0 0.000000 7.5296 9.5829 15.8355
 242    1 1.000000    0 0.000000 8.5194 10.4784 16.2625
 243    2 0.000000    1 1.823572 8.0245 10.0306 16.0490
 244    2 0.000000   -1 1.823572 8.0245 10.0306 16.0490
 245    1 1.000000    0 0.000000 13.5175 1.6128 17.8096
 246    1 1.000000    0 0.000000 14.5682 2.3995 18.3007
 247    2 0.000000    1 1.823572 14.0429 2.0061 18.0551
 248    2 0.000000   -1 1.823572 14.0429 2.0061 18.0551
 249    1 1.000000    0 0.000000 13.7722 3.4680 13.6943
 250    1 1.000000    0 0.000000 14.3135 4.5565 14.3914
 251    2 0.000000    1 1.823572 14.0429 4.0122 14.0429
 252    2 0.000000   -1 1.823572 14.0429 4.0122 14.0429
 253    1 1.000000    0 0.000000 9.5561 15.8057 1.5515
 254    1 1.000000    0 0.000000 10.5051 16.2923 2.4607
 255    2 0.000000    1 1.823572 10.0306 16.0490 2.0061
 256    2 0.000000   -1 1.823572 10.0306 16.0490 2.0061
 257    1 1.000000    0 0.000000 1.3641 13.7777 9.9384
 258    1 1.000000    0 0.000000 2.6481 14.3081 10.1229
 259    2 0.000000    1 1.823572 2.0061 14.0429 10.0306
 260    2 0.000000   -1 1.823572 2.0061 14.0429 10.0306
 261    1 1.000000    0 0.000000 1.6476 5.8673 1.4234
 262    1 1.000000    0 0.000000 2.3647 6.1695 2.5889
 263    2 0.000000    1 1.823572 2.0061 6.0184 2.0061
 264    2 0.000000   -1 1.823572 2.0061 6.0184 2.0061
 265    1 1.000000    0 0.000000 7.6731 3.4628 13.7867
 266    1 1.000000    0 0.000000 8.3759 4.5617 14.2990
 267    2 0.000000    1 1.823572 8.0245 4.0122 14.0429
 268    2 0.000000   -1 1.823572 8.0245 4.0122 14.0429
 269    1 1.000000    0 0.000000 1.5555 10.0143 7.4882
 270    1 1.000000    0 0.000000 2.4568 10.0469 8.5608
 271    2 0.000000    1 1.823572 2.0061 10.0306 8.0245
 272    2 0.000000   -1 1.823572 2.0061 10.0306 8.0245
 273    1 1.000000    0 0.000000 13.8967 7.5636 17.5480
 274    1 1.000000    0 0.000000 14.1890 8.4854 18.5623
 275    2 0.000000    1 1.823572 14.0429 8.0245 18.0551
 276    2 0.000000   -1 1.823572 14.0429 8.0245 18.0551
 277    1 1.000000    0 0.000000 13.9304 15.3860 13.8460
 278    1 1.000000    0 0.000000 14.1554 16.7120 14.2397
 279    2 0.000000    1 1.823572 14.0429 16.0490 14.0429
 280    2 0.000000   -1 1.823572 14.0429 16.0490 14.0429
 281    1 1.000000    0 0.000000 15.4064 13.9974 3.7365
 282    1 1.000000    0 0.000000 16.6915 14.0884 4.2880
 283    2 0.000000    1 1.823572 16.0490 14.0429 4.0122
 284    2 0.000000   -1 1.823572 16.0490 14.0429 4.0122
 285    1 1.000000    0 0.000000 11.5162 9.8025 7.6146
 286    1 1.000000    0 0.000000 12.5572 10.2588 8.4344
 287    2 0.000000    1 1.823572 12.0367 10.0306 8.0245
 288    2 0.000000   -1 1.823572 12.0367 10.0306 8.0245
 289    1 1.000000    0 0.000000 9.4857 9.7998 15.6738
 290    1 1.000000    0 0.000000 10.5755 10.2614 16.4242
 291    2 0.000000    1 1.823572 10.0306 10.0306 16.0490
 292    2 0.000000   -1 1.823572 10.0306 10.0306 16.0490
 293    1 1.000000    0 0.000000 11.9226 9.8047 13.3895
 294    1 1.000000    0 0.000000 12.1509 10.2566 14.6963
 295    2 0.000000    1 1.823572 12.0367 10.0306 14.0429
 296    2 0.000000   -1 1.823572 12.0367 10.0306 14.0429
 297    1 1.000000    0 0.000000 1.3673 15.8849 17.8185
 298    1 1.000000    0 0.000000 2.6449 16.2131 18.2917
 299    2 0.000000    1 1.823572 2.0061 16.0490 18.0551
 300    2 0.000000   -1 1.823572 2.0061 16.0490 18.0551
 301    1 1.000000    0 0.000000 17.8996 3.5969 3.4698
 302    1 1.000000    0 0.000000 18.2107 4.4276 4.5547
 303    2 0.000000    1 1.823572 18.0551 4.0122 4.0122
 304    2 0.000000   -1 1.823572 18.0551 4.0122 4.0122
 305    1 1.000000    0 0.000000 3.5026 17.5901 3.8900
 306    1 1.000000    0 0.000000 4.5219 18.5202 4.1345
 307    2 0.000000    1 1.823572 4.0122 18.0551 4.0122
 308    2 0.000000   -1 1.823572 4.0122 18.0551 4.0122
 309    1 1.000000    0 0.000000 1.6572 7.5342 11.6778
 310    1 1.000000    0 0.000000 2.3551 8.5148 12.3957
 311    2 0.000000    1 1.823572 2.0061 8.0245 12.0367
 312    2 0.000000   -1 1.823572 2.0061 8.0245 12.0367
 313    1 1.000000    0 0.000000 3.5739 13.5039 1.9146
 314    1 1.000000    0 0.000000 4.4506 14.5818 2.0976
 315    2 0.000000    1 1.823572 4.0122 14.0429 2.0061
 316    2 0.000000   -1 1.823572 4.0122 14.0429 2.0061
 317    1 1.000000    0 0.000000 15.5239 5.6527 7.7390
 318    1 1.000000    0 0.000000 16.5741 6.3840 8.3100
 319    2 0.000000    1 1.823572 16.0490 6.0184 8.0245
 320    2 0.000000   -1 1.823572 16.0490 6.0184 8.0245
 321    1 1.000000    0 0.000000 10.0186 13.4719 3.6062
 322    1 1.000000    0 0.000000 10.0427 14.6138 4.4183
 323    2 0.000000    1 1.823572 10.0306 14.0429 4.0122
 324    2 0.000000   -1 1.823572 10.0306 14.0429 4.0122
 325    1 1.000000    0 0.000000 17.7511 17.5248 7.6820
 326    1 1.000000    0 0.000000 18.3592 18.5854 8.3670
 327    2 0.000000    1 1.823572 18.0551 18.0551 8.0245
 328    2 0.000000   -1 1.823572 18.0551 18.0551 8.0245
 329    1 1.000000    0 0.000000 1.7173 5.4899 13.6847
 330    1 1.000000    0 0.000000 2.2950 6.5469 14.4010
 331    2 0.000000    1 1.823572 2.0061 6.0184 14.0429
 332    2 0.000000   -1 1.823572 2.0061 6.0184 14.0429
 333    1 1.000000    0 0.000000 1.8860 3.4959 3.5540
 334    1 1.000000    0 0.000000 2.1262 4.5286 4.4705
 335    2 0.000000    1 1.823572 2.0061 4.0122 4.0122
 336    2 0.000000   -1 1.823572 2.0061 4.0122 4.0122
 337    1 1.000000    0 0.000000 1.5296 11.5612 1.8118
 338    1 1.000000    0 0.000000 2.4826 12.5123 2.2005
 339    2 0.000000    1 1.823572 2.0061 12.0367 2.0061
 340    2 0.000000   -1 1.823572 2.0061 12.0367 2.0061
 341    1 1.000000    0 0.000000 11.8293 11.5553 1.5412
 342    1 1.000000    0 0.000000 12.2442 12.5181 2.4711
 343    2 0.000000    1 1.823572 12.0367 12.0367 2.0061
 344    2 0.000000   -1 1.823572 12.0367 12.0367 2.0061
 345    1 1.000000    0 0.000000 11.9185 7.6863 7.4223
 346    1 1.000000    0 0.000000 12.1550 8.3627 8.6267
 347    2 0.000000    1 1.823572 12.0367 8.0245 8.0245
 348    2 0.000000   -1 1.823572 12.0367 8.0245 8.0245
 349    1 1.000000    0 0.000000 5.7361 15.6811 11.5114
 350    1 1.000000    0 0.000000 6.3007 16.4169 12.5621
 351    2 0.000000    1 1.823572 6.0184 16.0490 12.0367
 352    2 0.000000   -1 1.823572 6.0184 16.0490 12.0367
 353    1 1.000000    0 0.000000 17.6550 5.5909 11.6519
 354    1 1.000000    0 0.000000 18.4552 6.4459 12.4216
 355    2 0.000000    1 1.823572 18.0551 6.0184 12.0367
 356    2 0.000000   -1 1.823572 18.0551 6.0184 12.0367
 357    1 1.000000    0 0.000000 15.5891 16.0481 3.4836
 358    1 1.000000    0 0.000000 16.5089 16.0499 4.5409
 359    2 0.000000    1 1.823572 16.0490 16.0490 4.0122
 360    2 0.000000   -1 1.823572 16.0490 16.0490 4.0122
 361    1 1.000000    0 0.000000 3.3552 3.9511 17.8195
 362    1 1.000000    0 0.000000 4.6693 4.0734 18.2907
 363    2 0.000000    1 1.823572 4.0122 4.0122 18.0551
 364    2 0.000000   -1 1.823572 4.0122 4.0122 18.0551
 365    1 1.000000    0 0.000000 7.6601 15.6270 17.6308
 366    1 1.000000    0 0.000000 8.3889 16.4710 18.4795
 367    2 0.000000    1 1.823572 8.0245 16.0490 18.0551
 368    2 0.000000   -1 1.823572 8.0245 16.0490 18.0551
 369    1 1.000000    0 0.000000 15.9339 1.5972 5.4612
 370    1 1.000000    0 0.000000 16.1641 2.4151 6.5756
 371    2 0.000000    1 1.823572 16.0490 2.0061 6.0184
 372    2 0.000000   -1 1.823572 16.0490 2.0061 6.0184
 373    1 1.000000    0 0.000000 13.9737 13.5800 13.5214
 374    1 1.000000    0 0.000000 14.1120 14.5057 14.5644
 375    2 0.000000    1 1.823572 14.0429 14.0429 14.0429
 376    2 0.000000   -1 1.823572 14.0429 14.0429 14.0429
 377    1 1.000000    0 0.000000 17.6808 9.5588 9.6724
 378    1 1.000000    0 0.000000 18.4294 10.5024 10.3888
 379    2 0.000000    1 1.823572 18.0551 10.0306 10.0306
 380    2 0.000000   -1 1.823572 18.0551 10.0306 10.0306
 381    1 1.000000    0 0.000000 13.4458 9.6955 1.8571
 382    1 1.000000    0 0.000000 14.6399 10.3657 2.1552
 383    2 0.000000    1 1.823572 14.0429 10.0306 2.0061
 384    2 0.000000   -1 1.823572 14.0429 10.0306 2.0061
 385    1 1.000000    0 0.000000 3.3641 15.8738 5.8180
 386    1 1.000000    0 0.000000 4.6604 16.2242 6.2188
 387    2 0.000000    1 1.823572 4.0122 16.0490 6.0184
 388    2 0.000000   -1 1.823572 4.0122 16.0490 6.0184
 389    1 1.000000    0 0.000000 13.7423 11.9552 9.4029
 390    1 1.000000    0 0.000000 14.3435 12.1183 10.6583
 391    2 0.000000    1 1.823572 14.0429 12.0367 10.0306
 392    2 0.000000   -1 1.823572 14.0429 12.0367 10.0306
 393    1 1.000000    0 0.000000 13.7961 17.5800 15.5970
 394    1 1.000000    0 0.000000 14.2897 18.5303 16.5010
 395    2 0.000000    1 1.823572 14.0429 18.0551 16.0490
 396    2 0.000000   -1 1.823572 14.0429 18.0551 16.0490
 397    1 1.000000    0 0.000000 5.5923 11.7245 9.5702
 398    1 1.000000    0 0.000000 6.4444 12.3490 10.4910
 399    2 0.000000    1 1.823572 6.0184 12.0367 10.0306
 400    2 0.000000   -1 1.823572 6.0184 12.0367 10.0306
 401    1 1.000000    0 0.000000 5.6408 7.4970 5.7535
 402    1 1.000000    0 0.000000 6.3960 8.5520 6.2833
 403    2 0.000000    1 1.823572 6.0184 8.0245 6.0184
 404    2 0.000000   -1 1.823572 6.0184 8.0245 6.0184
 405    1 1.000000    0 0.000000 1.9565 9.5085 11.5721
 406    1 1.000000    0 0.000000 2.0558 10.5527 12.5014
 407    2 0.000000    1 1.823572 2.0061 10.0306 12.0367
 408    2 0.000000   -1 1.823572 2.0061 10.0306 12.0367
 409    1 1.000000    0 0.000000 5.8219 9.5047 17.6359
 410    1 1.000000    0 0.000000 6.2149 10.5566 18.4744
 411    2 0.000000    1 1.823572 6.0184 10.0306 18.0551
 412    2 0.000000   -1 1.823572 6.0184 10.0306 18.0551
 413    1 1.000000    0 0.000000 1.3922 5.7322 11.8574
 414    1 1.000000    0 0.000000 2.6201 6.3045 12.2161
 415    2 0.000000    1 1.823572 2.0061 6.0184 12.0367
 416    2 0.000000   -1 1.823572 2.0061 6.0184 12.0367
 417    1 1.000000    0 0.000000 3.6997 11.6640 1.5017
 418    1 1.000000    0 0.000000 4.3248 12.4095 2.5105
 419    2 0.000000    1 1.823572 4.0122 12.0367 2.0061
 420    2 0.000000   -1 1.823572 4.0122 12.0367 2.0061
 421    1 1.000000    0 0.000000 9.5391 3.6889 13.6623
 422    1 1.000000    0 0.000000 10.5221 4.3356 14.4234
 423    2 0.000000    1 1.823572 10.0306 4.0122 14.0429
 424    2 0.000000   -1 1.823572 10.0306 4.0122 14.0429
 425    1 1.000000    0 0.000000 18.0400 13.6890 13.4383
 426    1 1.000000    0 0.000000 18.0703 14.3967 14.6475
 427    2 0.000000    1 1.823572 18.0551 14.0429 14.0429
 428    2 0.000000   -1 1.823572 18.0551 14.0429 14.0429
 429    1 1.000000    0 0.000000 17.5902 13.5820 5.7685
 430    1 1.000000    0 0.000000 18.5200 14.5038 6.2683
 431    2 0.000000    1 1.823572 18.0551 14.0429 6.0184
 432    2 0.000000   -1 1.823572 18.0551 14.0429 6.0184
 433    1 1.000000    0 0.000000 1.5344 17.7940 3.5648
 434    1 1.000000    0 0.000000 2.4779 18.3162 4.4597
 435    2 0.000000    1 1.823572 2.0061 18.0551 4.0122
 436    2 0.000000   -1 1.823572 2.0061 18.0551 4.0122
 437    1 1.000000    0 0.000000 17.8719 9.9943 1.3308
 438    1 1.000000    0 0.000000 18.2383 10.0670 2.6815
 439    2 0.000000    1 1.823572 18.0551 10.0306 2.0061
 440    2 0.000000   -1 1.823572 18.0551 10.0306 2.0061
 441    1 1.000000    0 0.000000 7.5237 13.7479 13.6514
 442    1 1.000000    0 0.000000 8.5253 14.3378 14.4344
 443    2 0.000000    1 1.823572 8.0245 14.0429 14.0429
 444    2 0.000000   -1 1.823572 8.0245 14.0429 14.0429
 445    1 1.000000    0 0.000000 1.7476 11.5492 17.6233
 446    1 1.000000    0 0.000000 2.2647 12.5243 18.4869
 447    2 0.000000    1 1.823572 2.0061 12.0367 18.0551
 448    2 0.000000   -1 1.823572 2.0061 12.0367 18.0551
 449    1 1.000000    0 0.000000 9.8868 11.4564 5.6530
 450    1 1.000000    0 0.000000 10.1744 12.6171 6.3838
 451    2 0.000000    1 1.823572 10.0306 12.0367 6.0184
 452    2 0.000000   -1 1.823572 10.0306 12.0367 6.0184
 453    1 1.000000    0 0.000000 1.5715 5.7885 9.5314
 454    1 1.000000    0 0.000000 2.4408 6.2482 10.5299
 455    2 0.000000    1 1.823572 2.0061 6.0184 10.0306
 456    2 0.000000   -1 1.823572 2.0061 6.0184 10.0306
 457    1 1.000000    0 0.000000 15.5250 7.5617 3.9642
 458    1 1.000000    0 0.000000 16.5730 8.4873 4.0603
 459    2 0.000000    1 1.823572 16.0490 8.0245 4.0122
 460    2 0.000000   -1 1.823572 16.0490 8.0245 4.0122
 461    1 1.000000    0 0.000000 13.7132 5.9531 13.4280
 462    1 1.000000    0 0.000000 14.3725 6.0836 14.6577
 463    2 0.000000    1 1.823572 14.0429 6.0184 14.0429
 464    2 0.000000   -1 1.823572 14.0429 6.0184 14.0429
 465    1 1.000000    0 0.000000 1.9154 9.5248 13.5665
 466    1 1.000000    0 0.000000 2.0968 10.5365 14.5192
 467    2 0.000000    1 1.823572 2.0061 10.0306 14.0429
 468    2 0.000000   -1 1.823572 2.0061 10.0306 14.0429
 469    1 1.000000    0 0.000000 5.6363 13.5519 13.7204
 470    1 1.000000    0 0.000000 6.4004 14.5338 14.3653
 471    2 0.000000    1 1.823572 6.0184 14.0429 14.0429
 472    2 0.000000   -1 1.823572 6.0184 14.0429 14.0429
 473    1 1.000000    0 0.000000 15.5809 7.7038 17.6440
 474    1 1.000000    0 0.000000 16.5171 8.3452 18.4663
 475    2 0.000000    1 1.823572 16.0490 8.0245 18.0551
 476    2 0.000000   -1 1.823572 16.0490 8.0245 18.0551
 477    1 1.000000    0 0.000000 7.8104 13.4919 9.6543
 478    1 1.000000    0 0.000000 8.2386 14.5938 10.4070
 479    2 0.000000    1 1.823572 8.0245 14.0429 10.0306
 480    2 0.000000   -1 1.823572 8.0245 14.0429 10.0306
 481    1 1.000000    0 0.000000 15.6136 11.5373 13.8148
 482    1 1.000000    0 0.000000 16.4844 12.5362 14.2709
 483    2 0.000000    1 1.823572 16.0490 12.0367 14.0429
 484    2 0.000000   -1 1.823572 16.0490 12.0367 14.0429
 485    1 1.000000    0 0.000000 5.9347 13.6973 17.4513
 486    1 1.000000    0 0.000000 6.1021 14.3884 18.6589
 487    2 0.000000    1 1.823572 6.0184 14.0429 18.0551
 488    2 0.000000   -1 1.823572 6.0184 14.0429 18.0551
 489    1 1.000000    0 0.000000 13.5999 3.6782 5.5904
 490    1 1.000000    0 0.000000 14.4858 4.3463 6.4464
 491    2 0.000000    1 1.823572 14.0429 4.0122 6.0184
 492    2 0.000000   -1 1.823572 14.0429 4.0122 6.0184
 493    1 1.000000    0 0.000000 7.5375 1.5052 15.9951
 494    1 1.000000    0 0.000000 8.5115 2.5070 16.1029
 495    2 0.000000    1 1.823572 8.0245 2.0061 16.0490
 496    2 0.000000   -1 1.823572 8.0245 2.0061 16.0490
 497    1 1.000000    0 0.000000 17.6492 13.5747 11.7095
 498    1 1.000000    0 0.000000 18.4610 14.5110 12.3640
 499    2 0.000000    1 1.823572 18.0551 14.0429 12.0367
 500    2 0.000000   -1 1.823572 18.0551 14.0429 12.0367
 501    1 1.000000    0 0.000000 11.5149 15.5824 5.9878
 502    1 1.000000    0 0.000000 12.5586 16.5156 6.0489
 503    2 0.000000    1 1.823572 12.0367 16.0490 6.0184
 504    2 0.000000   -1 1.823572 12.0367 16.0490 6.0184
 505    1 1.000000    0 0.000000 17.4343 1.6832 12.0009
 506    1 1.000000    0 0.000000 18.6759 2.3291 12.0726
 507    2 0.000000    1 1.823572 18.0551 2.0061 12.0367
 508    2 0.000000   -1 1.823572 18.0551 2.0061 12.0367
 509    1 1.000000    0 0.000000 1.9135 9.9184 1.3207
 510    1 1.000000    0 0.000000 2.0988 10.1428 2.6916
 511    2 0.000000    1 1.823572 2.0061 10.0306 2.0061
 512    2 0.000000   -1 1.823572 2.0061 10.0306 2.0061
 513    1 1.000000    0 0.000000 3.9483 3.4097 11.6849
 514    1 1.000000    0 0.000000 4.0762 4.6148 12.3886
 515    2 0.000000    1 1.823572 4.0122 4.0122 12.0367
 516    2 0.000000   -1 1.823572 4.0122 4.0122 12.0367
 517    1 1.000000    0 0.000000 15.5737 1.6497 9.6590
 518    1 1.000000    0 0.000000 16.5243 2.3625 10.4022
 519    2 0.000000    1 1.823572 16.0490 2.0061 10.0306
 520    2 0.000000   -1 1.823572 16.0490 2.0061 10.0306
 521    1 1.000000    0 0.000000 3.6536 5.6246 1.5508
 522    1 1.000000    0 0.000000 4.3709 6.4121 2.4615
 523    2 0.000000    1 1.823572 4.0122 6.0184 2.0061
 524    2 0.000000   -1 1.823572 4.0122 6.0184 2.0061
 525    1 1.000000    0 0.000000 5.8322 7.7813 11.4065
 526    1 1.000000    0 0.000000 6.2045 8.2677 12.6670
 527    2 0.000000    1 1.823572 6.0184 8.0245 12.0367
 528    2 0.000000   -1 1.823572 6.0184 8.0245 12.0367
 529    1 1.000000    0 0.000000 7.4272 15.6976 9.9267
 530    1 1.000000    0 0.000000 8.6218 16.4004 10.1345
 531    2 0.000000    1 1.823572 8.0245 16.0490 10.0306
 532    2 0.000000   -1 1.823572 8.0245 16.0490 10.0306
 533    1 1.000000    0 0.000000 17.8658 13.3693 1.9670
 534    1 1.000000    0 0.000000 18.2444 14.7164 2.0452
 535    2 0.000000    1 1.823572 18.0551 14.0429 2.0061
 536    2 0.000000   -1 1.823572 18.0551 14.0429 2.0061